<?xml version="1.0"?>
<VTKFile type="PolyData" version="0.1" byte_order="LittleEndian" header_type="UInt32" compressor="vtkZLibDataCompressor">
  <PolyData>
    <Piece NumberOfPoints="2494" NumberOfVerts="0" NumberOfLines="0" NumberOfStrips="0" NumberOfPolys="1000">
      <PointData>
        <DataArray type="Int32" Name="Id" format="ascii" RangeMin="0" RangeMax="2493">
          0 1 2 3 4 5
          6 7 8 9 10 11
          12 13 14 15 16 17
          18 19 20 21 22 23
          24 25 26 27 28 29
          30 31 32 33 34 35
          36 37 38 39 40 41
          42 43 44 45 46 47
          48 49 50 51 52 53
          54 55 56 57 58 59
          60 61 62 63 64 65
          66 67 68 69 70 71
          72 73 74 75 76 77
          78 79 80 81 82 83
          84 85 86 87 88 89
          90 91 92 93 94 95
          96 97 98 99 100 101
          102 103 104 105 106 107
          108 109 110 111 112 113
          114 115 116 117 118 119
          120 121 122 123 124 125
          126 127 128 129 130 131
          132 133 134 135 136 137
          138 139 140 141 142 143
          144 145 146 147 148 149
          150 151 152 153 154 155
          156 157 158 159 160 161
          162 163 164 165 166 167
          168 169 170 171 172 173
          174 175 176 177 178 179
          180 181 182 183 184 185
          186 187 188 189 190 191
          192 193 194 195 196 197
          198 199 200 201 202 203
          204 205 206 207 208 209
          210 211 212 213 214 215
          216 217 218 219 220 221
          222 223 224 225 226 227
          228 229 230 231 232 233
          234 235 236 237 238 239
          240 241 242 243 244 245
          246 247 248 249 250 251
          252 253 254 255 256 257
          258 259 260 261 262 263
          264 265 266 267 268 269
          270 271 272 273 274 275
          276 277 278 279 280 281
          282 283 284 285 286 287
          288 289 290 291 292 293
          294 295 296 297 298 299
          300 301 302 303 304 305
          306 307 308 309 310 311
          312 313 314 315 316 317
          318 319 320 321 322 323
          324 325 326 327 328 329
          330 331 332 333 334 335
          336 337 338 339 340 341
          342 343 344 345 346 347
          348 349 350 351 352 353
          354 355 356 357 358 359
          360 361 362 363 364 365
          366 367 368 369 370 371
          372 373 374 375 376 377
          378 379 380 381 382 383
          384 385 386 387 388 389
          390 391 392 393 394 395
          396 397 398 399 400 401
          402 403 404 405 406 407
          408 409 410 411 412 413
          414 415 416 417 418 419
          420 421 422 423 424 425
          426 427 428 429 430 431
          432 433 434 435 436 437
          438 439 440 441 442 443
          444 445 446 447 448 449
          450 451 452 453 454 455
          456 457 458 459 460 461
          462 463 464 465 466 467
          468 469 470 471 472 473
          474 475 476 477 478 479
          480 481 482 483 484 485
          486 487 488 489 490 491
          492 493 494 495 496 497
          498 499 500 501 502 503
          504 505 506 507 508 509
          510 511 512 513 514 515
          516 517 518 519 520 521
          522 523 524 525 526 527
          528 529 530 531 532 533
          534 535 536 537 538 539
          540 541 542 543 544 545
          546 547 548 549 550 551
          552 553 554 555 556 557
          558 559 560 561 562 563
          564 565 566 567 568 569
          570 571 572 573 574 575
          576 577 578 579 580 581
          582 583 584 585 586 587
          588 589 590 591 592 593
          594 595 596 597 598 599
          600 601 602 603 604 605
          606 607 608 609 610 611
          612 613 614 615 616 617
          618 619 620 621 622 623
          624 625 626 627 628 629
          630 631 632 633 634 635
          636 637 638 639 640 641
          642 643 644 645 646 647
          648 649 650 651 652 653
          654 655 656 657 658 659
          660 661 662 663 664 665
          666 667 668 669 670 671
          672 673 674 675 676 677
          678 679 680 681 682 683
          684 685 686 687 688 689
          690 691 692 693 694 695
          696 697 698 699 700 701
          702 703 704 705 706 707
          708 709 710 711 712 713
          714 715 716 717 718 719
          720 721 722 723 724 725
          726 727 728 729 730 731
          732 733 734 735 736 737
          738 739 740 741 742 743
          744 745 746 747 748 749
          750 751 752 753 754 755
          756 757 758 759 760 761
          762 763 764 765 766 767
          768 769 770 771 772 773
          774 775 776 777 778 779
          780 781 782 783 784 785
          786 787 788 789 790 791
          792 793 794 795 796 797
          798 799 800 801 802 803
          804 805 806 807 808 809
          810 811 812 813 814 815
          816 817 818 819 820 821
          822 823 824 825 826 827
          828 829 830 831 832 833
          834 835 836 837 838 839
          840 841 842 843 844 845
          846 847 848 849 850 851
          852 853 854 855 856 857
          858 859 860 861 862 863
          864 865 866 867 868 869
          870 871 872 873 874 875
          876 877 878 879 880 881
          882 883 884 885 886 887
          888 889 890 891 892 893
          894 895 896 897 898 899
          900 901 902 903 904 905
          906 907 908 909 910 911
          912 913 914 915 916 917
          918 919 920 921 922 923
          924 925 926 927 928 929
          930 931 932 933 934 935
          936 937 938 939 940 941
          942 943 944 945 946 947
          948 949 950 951 952 953
          954 955 956 957 958 959
          960 961 962 963 964 965
          966 967 968 969 970 971
          972 973 974 975 976 977
          978 979 980 981 982 983
          984 985 986 987 988 989
          990 991 992 993 994 995
          996 997 998 999 1000 1001
          1002 1003 1004 1005 1006 1007
          1008 1009 1010 1011 1012 1013
          1014 1015 1016 1017 1018 1019
          1020 1021 1022 1023 1024 1025
          1026 1027 1028 1029 1030 1031
          1032 1033 1034 1035 1036 1037
          1038 1039 1040 1041 1042 1043
          1044 1045 1046 1047 1048 1049
          1050 1051 1052 1053 1054 1055
          1056 1057 1058 1059 1060 1061
          1062 1063 1064 1065 1066 1067
          1068 1069 1070 1071 1072 1073
          1074 1075 1076 1077 1078 1079
          1080 1081 1082 1083 1084 1085
          1086 1087 1088 1089 1090 1091
          1092 1093 1094 1095 1096 1097
          1098 1099 1100 1101 1102 1103
          1104 1105 1106 1107 1108 1109
          1110 1111 1112 1113 1114 1115
          1116 1117 1118 1119 1120 1121
          1122 1123 1124 1125 1126 1127
          1128 1129 1130 1131 1132 1133
          1134 1135 1136 1137 1138 1139
          1140 1141 1142 1143 1144 1145
          1146 1147 1148 1149 1150 1151
          1152 1153 1154 1155 1156 1157
          1158 1159 1160 1161 1162 1163
          1164 1165 1166 1167 1168 1169
          1170 1171 1172 1173 1174 1175
          1176 1177 1178 1179 1180 1181
          1182 1183 1184 1185 1186 1187
          1188 1189 1190 1191 1192 1193
          1194 1195 1196 1197 1198 1199
          1200 1201 1202 1203 1204 1205
          1206 1207 1208 1209 1210 1211
          1212 1213 1214 1215 1216 1217
          1218 1219 1220 1221 1222 1223
          1224 1225 1226 1227 1228 1229
          1230 1231 1232 1233 1234 1235
          1236 1237 1238 1239 1240 1241
          1242 1243 1244 1245 1246 1247
          1248 1249 1250 1251 1252 1253
          1254 1255 1256 1257 1258 1259
          1260 1261 1262 1263 1264 1265
          1266 1267 1268 1269 1270 1271
          1272 1273 1274 1275 1276 1277
          1278 1279 1280 1281 1282 1283
          1284 1285 1286 1287 1288 1289
          1290 1291 1292 1293 1294 1295
          1296 1297 1298 1299 1300 1301
          1302 1303 1304 1305 1306 1307
          1308 1309 1310 1311 1312 1313
          1314 1315 1316 1317 1318 1319
          1320 1321 1322 1323 1324 1325
          1326 1327 1328 1329 1330 1331
          1332 1333 1334 1335 1336 1337
          1338 1339 1340 1341 1342 1343
          1344 1345 1346 1347 1348 1349
          1350 1351 1352 1353 1354 1355
          1356 1357 1358 1359 1360 1361
          1362 1363 1364 1365 1366 1367
          1368 1369 1370 1371 1372 1373
          1374 1375 1376 1377 1378 1379
          1380 1381 1382 1383 1384 1385
          1386 1387 1388 1389 1390 1391
          1392 1393 1394 1395 1396 1397
          1398 1399 1400 1401 1402 1403
          1404 1405 1406 1407 1408 1409
          1410 1411 1412 1413 1414 1415
          1416 1417 1418 1419 1420 1421
          1422 1423 1424 1425 1426 1427
          1428 1429 1430 1431 1432 1433
          1434 1435 1436 1437 1438 1439
          1440 1441 1442 1443 1444 1445
          1446 1447 1448 1449 1450 1451
          1452 1453 1454 1455 1456 1457
          1458 1459 1460 1461 1462 1463
          1464 1465 1466 1467 1468 1469
          1470 1471 1472 1473 1474 1475
          1476 1477 1478 1479 1480 1481
          1482 1483 1484 1485 1486 1487
          1488 1489 1490 1491 1492 1493
          1494 1495 1496 1497 1498 1499
          1500 1501 1502 1503 1504 1505
          1506 1507 1508 1509 1510 1511
          1512 1513 1514 1515 1516 1517
          1518 1519 1520 1521 1522 1523
          1524 1525 1526 1527 1528 1529
          1530 1531 1532 1533 1534 1535
          1536 1537 1538 1539 1540 1541
          1542 1543 1544 1545 1546 1547
          1548 1549 1550 1551 1552 1553
          1554 1555 1556 1557 1558 1559
          1560 1561 1562 1563 1564 1565
          1566 1567 1568 1569 1570 1571
          1572 1573 1574 1575 1576 1577
          1578 1579 1580 1581 1582 1583
          1584 1585 1586 1587 1588 1589
          1590 1591 1592 1593 1594 1595
          1596 1597 1598 1599 1600 1601
          1602 1603 1604 1605 1606 1607
          1608 1609 1610 1611 1612 1613
          1614 1615 1616 1617 1618 1619
          1620 1621 1622 1623 1624 1625
          1626 1627 1628 1629 1630 1631
          1632 1633 1634 1635 1636 1637
          1638 1639 1640 1641 1642 1643
          1644 1645 1646 1647 1648 1649
          1650 1651 1652 1653 1654 1655
          1656 1657 1658 1659 1660 1661
          1662 1663 1664 1665 1666 1667
          1668 1669 1670 1671 1672 1673
          1674 1675 1676 1677 1678 1679
          1680 1681 1682 1683 1684 1685
          1686 1687 1688 1689 1690 1691
          1692 1693 1694 1695 1696 1697
          1698 1699 1700 1701 1702 1703
          1704 1705 1706 1707 1708 1709
          1710 1711 1712 1713 1714 1715
          1716 1717 1718 1719 1720 1721
          1722 1723 1724 1725 1726 1727
          1728 1729 1730 1731 1732 1733
          1734 1735 1736 1737 1738 1739
          1740 1741 1742 1743 1744 1745
          1746 1747 1748 1749 1750 1751
          1752 1753 1754 1755 1756 1757
          1758 1759 1760 1761 1762 1763
          1764 1765 1766 1767 1768 1769
          1770 1771 1772 1773 1774 1775
          1776 1777 1778 1779 1780 1781
          1782 1783 1784 1785 1786 1787
          1788 1789 1790 1791 1792 1793
          1794 1795 1796 1797 1798 1799
          1800 1801 1802 1803 1804 1805
          1806 1807 1808 1809 1810 1811
          1812 1813 1814 1815 1816 1817
          1818 1819 1820 1821 1822 1823
          1824 1825 1826 1827 1828 1829
          1830 1831 1832 1833 1834 1835
          1836 1837 1838 1839 1840 1841
          1842 1843 1844 1845 1846 1847
          1848 1849 1850 1851 1852 1853
          1854 1855 1856 1857 1858 1859
          1860 1861 1862 1863 1864 1865
          1866 1867 1868 1869 1870 1871
          1872 1873 1874 1875 1876 1877
          1878 1879 1880 1881 1882 1883
          1884 1885 1886 1887 1888 1889
          1890 1891 1892 1893 1894 1895
          1896 1897 1898 1899 1900 1901
          1902 1903 1904 1905 1906 1907
          1908 1909 1910 1911 1912 1913
          1914 1915 1916 1917 1918 1919
          1920 1921 1922 1923 1924 1925
          1926 1927 1928 1929 1930 1931
          1932 1933 1934 1935 1936 1937
          1938 1939 1940 1941 1942 1943
          1944 1945 1946 1947 1948 1949
          1950 1951 1952 1953 1954 1955
          1956 1957 1958 1959 1960 1961
          1962 1963 1964 1965 1966 1967
          1968 1969 1970 1971 1972 1973
          1974 1975 1976 1977 1978 1979
          1980 1981 1982 1983 1984 1985
          1986 1987 1988 1989 1990 1991
          1992 1993 1994 1995 1996 1997
          1998 1999 2000 2001 2002 2003
          2004 2005 2006 2007 2008 2009
          2010 2011 2012 2013 2014 2015
          2016 2017 2018 2019 2020 2021
          2022 2023 2024 2025 2026 2027
          2028 2029 2030 2031 2032 2033
          2034 2035 2036 2037 2038 2039
          2040 2041 2042 2043 2044 2045
          2046 2047 2048 2049 2050 2051
          2052 2053 2054 2055 2056 2057
          2058 2059 2060 2061 2062 2063
          2064 2065 2066 2067 2068 2069
          2070 2071 2072 2073 2074 2075
          2076 2077 2078 2079 2080 2081
          2082 2083 2084 2085 2086 2087
          2088 2089 2090 2091 2092 2093
          2094 2095 2096 2097 2098 2099
          2100 2101 2102 2103 2104 2105
          2106 2107 2108 2109 2110 2111
          2112 2113 2114 2115 2116 2117
          2118 2119 2120 2121 2122 2123
          2124 2125 2126 2127 2128 2129
          2130 2131 2132 2133 2134 2135
          2136 2137 2138 2139 2140 2141
          2142 2143 2144 2145 2146 2147
          2148 2149 2150 2151 2152 2153
          2154 2155 2156 2157 2158 2159
          2160 2161 2162 2163 2164 2165
          2166 2167 2168 2169 2170 2171
          2172 2173 2174 2175 2176 2177
          2178 2179 2180 2181 2182 2183
          2184 2185 2186 2187 2188 2189
          2190 2191 2192 2193 2194 2195
          2196 2197 2198 2199 2200 2201
          2202 2203 2204 2205 2206 2207
          2208 2209 2210 2211 2212 2213
          2214 2215 2216 2217 2218 2219
          2220 2221 2222 2223 2224 2225
          2226 2227 2228 2229 2230 2231
          2232 2233 2234 2235 2236 2237
          2238 2239 2240 2241 2242 2243
          2244 2245 2246 2247 2248 2249
          2250 2251 2252 2253 2254 2255
          2256 2257 2258 2259 2260 2261
          2262 2263 2264 2265 2266 2267
          2268 2269 2270 2271 2272 2273
          2274 2275 2276 2277 2278 2279
          2280 2281 2282 2283 2284 2285
          2286 2287 2288 2289 2290 2291
          2292 2293 2294 2295 2296 2297
          2298 2299 2300 2301 2302 2303
          2304 2305 2306 2307 2308 2309
          2310 2311 2312 2313 2314 2315
          2316 2317 2318 2319 2320 2321
          2322 2323 2324 2325 2326 2327
          2328 2329 2330 2331 2332 2333
          2334 2335 2336 2337 2338 2339
          2340 2341 2342 2343 2344 2345
          2346 2347 2348 2349 2350 2351
          2352 2353 2354 2355 2356 2357
          2358 2359 2360 2361 2362 2363
          2364 2365 2366 2367 2368 2369
          2370 2371 2372 2373 2374 2375
          2376 2377 2378 2379 2380 2381
          2382 2383 2384 2385 2386 2387
          2388 2389 2390 2391 2392 2393
          2394 2395 2396 2397 2398 2399
          2400 2401 2402 2403 2404 2405
          2406 2407 2408 2409 2410 2411
          2412 2413 2414 2415 2416 2417
          2418 2419 2420 2421 2422 2423
          2424 2425 2426 2427 2428 2429
          2430 2431 2432 2433 2434 2435
          2436 2437 2438 2439 2440 2441
          2442 2443 2444 2445 2446 2447
          2448 2449 2450 2451 2452 2453
          2454 2455 2456 2457 2458 2459
          2460 2461 2462 2463 2464 2465
          2466 2467 2468 2469 2470 2471
          2472 2473 2474 2475 2476 2477
          2478 2479 2480 2481 2482 2483
          2484 2485 2486 2487 2488 2489
          2490 2491 2492 2493
        </DataArray>
        <DataArray type="Float64" Name="CircumRadius" format="ascii" RangeMin="0.49398714610480454" RangeMax="2.120871955791657">
          1.1693117290932442 0.806641078435103 0.8984643792263934 1.4460665087443296 1.4583353258152207 1.5803115328657475
          1.1095901611627612 0.8876509497225564 1.0108396482098718 1.5237864281641664 1.4917864894572674 0.9063751561029585
          1.2027614994049234 1.095481892676218 0.7367383124413446 1.1838774188283456 1.0541224054491352 1.2445629551441122
          1.0415294458889444 1.1792093283862424 1.0442096310896185 1.2255977826561764 1.1668714961937514 1.2861551203806545
          0.9370973268503479 0.8332198453476597 0.8191714035176882 0.8949637807321376 1.06033751286198 1.3136089294296225
          1.5717775443045845 1.470730183556036 0.9975621448331966 1.0586448473898444 1.4964633780901548 1.3070274262155555
          0.6542789797010287 0.8322089340457406 1.5393076060462143 1.4648244940222594 1.2125236428718416 0.9379418746821337
          0.9100640052061065 1.4294912026775353 1.4231440187092854 1.524247999958577 1.2178469938238887 0.6731863334603276
          1.2295115400983858 1.2442606180907454 1.3862470174735773 1.0436574924615931 1.029465674106969 1.0980121693785985
          1.137383645049393 1.0578421734544234 1.190250070840925 1.3124155701946874 1.3723522438898013 1.420252115237924
          0.9832392953946943 0.904949813272669 1.0247220149874265 1.0298953757843268 1.1075242646532102 1.036208207147224
          1.045442362799107 1.2506037966578194 0.9911214368326776 1.176044113664064 1.3502522438163926 1.2253568569731133
          1.3096614491591931 1.1827106654826323 0.9189289101628824 1.0363663481553187 1.3167371059079662 1.222777029809051
          1.6479787614561174 1.3613415786489838 0.8074388266873477 1.0089226906763356 1.1282126614317716 1.3732842926680995
          1.1739426838790918 0.9838036939374435 0.8781650107735289 0.8577512743390445 0.922622037664251 1.0724868882949088
          1.2340721859505133 1.0771578150347192 1.0291152621046262 1.145605347401964 1.1406980218032028 1.3145420120564182
          1.250612606817668 1.2223435420895057 1.1781512672407257 0.9491858837943293 0.9943194149743716 1.6308526263214542
          1.1583328809530031 1.1658263697087237 1.4391546405485471 1.470988010570539 1.260213415720128 1.1011544263776647
          1.081143967075573 1.210008633059361 1.00435948428408 1.0695371907626234 1.3413008190980695 1.277588230105576
          1.1217427210348905 0.9869488518023795 1.3385360767287786 1.3768776397620048 0.7984082929437082 0.8886212271208531
          1.1102897068731274 1.138645729958971 1.4456191600197739 1.075731773198952 1.0944260806230062 1.0025380393519177
          1.3835877384893895 1.3778270951914624 0.9409988411808231 1.2180901806490103 1.0304452823500507 1.099047002397388
          1.3960183856776476 1.343656958244446 1.2406388885016653 1.537924705878177 1.5261192142234692 1.0286827874034916
          1.2361523076016177 1.1199688032761186 1.3950248564652035 1.029898565846115 1.5950240911687894 1.6641647588452622
          1.479970383272361 0.7674237776113514 1.1612485358326574 1.152697580195251 1.1717020711771702 1.2523467636965502
          1.3939250572831994 1.2525139088567272 1.1755590762404031 1.0156432348416355 0.9639990281809306 0.6630750270734928
          0.5162506373918452 0.5190731043889294 0.6717442175422738 0.978522184359762 1.433339249621198 1.5186552567512577
          0.8490500592859791 1.066018833441624 1.3560070936147444 1.375778271699688 1.2382480119183525 1.0899128986386286
          0.9074361971960844 1.13521829535742 1.1116235622459392 1.085703829157832 1.2527612793520062 0.8904845525810665
          0.9902718389773365 1.125967453001391 1.3738558564483887 1.423316072013039 1.1212676878407897 1.1272950091733311
          0.8439664226238518 0.793047044373678 0.7764798685057481 1.4822810139336282 0.8716731417140553 0.9928105487561529
          1.4025407687734923 1.5587600486737931 1.5807109690666759 1.1519950136503145 0.9464523062943062 1.3171004645967748
          1.279383060428714 0.778186580074121 1.2758620396594416 1.2472952532576704 0.9282271079149607 1.1549510593157588
          0.7228781505719294 1.4419381033946357 0.751844357891166 1.0846269302673732 0.9292888493430799 1.3690422155830442
          1.3401127646743498 1.173105783691389 1.0534839536950336 1.3468088996094885 1.1545178724622893 1.0998811855667954
          0.9590440159556248 1.2515719281410629 1.1240569649644234 1.0820897274400596 0.939699351063631 1.3059477025622002
          0.5631287718934472 1.1736334809123354 1.1581149277689955 1.2262284557779357 1.2255545561817591 1.2471209050397243
          1.2242256346238922 0.7691698000544305 1.2989818881633437 1.3074518940388937 1.3962453262309429 1.2907326009524556
          1.0060831438993167 0.9796592407126862 1.1909214442037506 0.9450737366795707 0.9321883676002397 1.3910858946731126
          1.1558649185094805 1.2856882166189578 1.3359335233345324 1.4656922523911697 1.040005919075855 1.019996894387705
          1.042452427449914 0.84418267604946 1.244167938580549 1.1371936046678417 1.264359973059158 1.0895648074376438
          1.4330162560569721 1.257676464898101 1.5160588796695107 1.5292686857697677 1.0568013585432956 0.7553356902487529
          1.0172855989650964 0.9567187477728609 1.4033950816293015 0.6629153185209693 1.3048589969291575 1.4917380880308786
          1.3979252744221555 1.1951080692259626 0.6925635656750857 0.9878138710177511 0.8466046713616907 0.79717627080716
          0.8395794956811019 0.919174997620441 1.040344246527304 1.1923659127283055 1.1723915607225066 1.4750457814822024
          1.2196842296497978 0.6480926245761759 1.4095197169827167 1.3974143297185986 1.2832492090832397 0.6536391261270552
          1.0180104316240182 0.8995932746170441 1.308015624844435 1.4974616494627668 0.9186078264093703 1.034314915942561
          0.7406968106420071 1.3944518211405372 1.3714057440766656 1.5891201904506085 1.0117602927536986 1.2331100348380295
          1.4982579257124853 0.8240523056301523 0.7447859205405801 1.352169046953995 1.2709161002030402 1.5101782177089522
          0.9338431551409335 0.6911499963061222 1.173723831854456 1.1879169460797208 1.3226133998736112 1.46549834080718
          1.0683327858061034 1.0530462525362225 1.4642011639058432 1.2488555792795897 1.0743158758391156 1.1503859764139701
          1.2086889707910957 1.5110585569950647 1.3615191456828073 0.9214612705162505 1.3225753844597106 1.3580820241767053
          1.2512941890630507 1.1242630967183918 1.0644315613296353 1.0722804030113 1.1477511358746495 1.2902112572448747
          0.8782507429593991 1.2219187050547182 1.108064560978585 1.2340928252472523 1.1688083147623383 1.1668799177383753
          1.3245649048887267 1.193718411755741 0.9240511649559747 0.7037235626993746 0.6077201936717302 0.6344822360744737
          0.7847212777825524 1.0590695278485052 1.0719168078065193 1.0634978708864051 1.1273611852025383 1.357985003315442
          0.9939292588664426 1.2022058657595867 1.16167410139389 1.0037187537979806 1.2400291729001027 1.1189974622743402
          1.4305416587028723 0.787915283671723 0.8631488964768752 1.1151393007051646 1.5313767034572507 1.4395000241700253
          1.4330464644175993 1.455345291745758 1.1042510108623682 1.091389801395764 0.6947152531651118 1.3896438336927979
          1.2757289227044946 1.3578430192182043 1.1615003350955322 1.1685456408279498 0.9664937085489076 1.0856926692055826
          1.080620622179828 1.5223532411046783 1.63716143500926 1.2635106005374317 1.3696257590601224 1.1608782431197167
          1.1450362280244248 1.009865223386691 1.0512494480855141 0.9301613840799394 1.323218897048266 1.3241886490831747
          1.4058340742657733 0.9986407053623565 0.8855191026307091 0.7509083117458981 0.7190681262420904 0.789795137683162
          0.9633371351164322 1.171664315400648 1.2142245217370649 1.1377543186490622 1.2504189977373104 1.2494479046697893
          1.0283811435632286 1.2377979773799865 1.2934668953235244 1.4859660155935013 1.4850347459905826 1.2241242999761315
          1.291203933196396 1.294458825132852 1.1401483188104728 1.4357579000703111 0.981917218047408 1.1906698074608084
          1.1569628728878492 1.3211282250035845 1.1669718438086578 1.1732571224037245 0.9363404935219878 1.1608255503925595
          1.1810552028802832 1.186187580308891 1.1550088880792178 1.2271465059365894 1.2146990802044728 0.8856684036811633
          0.9164592384275719 0.8628029624340013 1.1968226799839894 1.3350397265085778 1.6462467128267937 1.2732316038707532
          1.2779183947983375 0.8695412519385954 1.483633563657119 0.9995610479823595 0.8414044460207669 1.1001667908751274
          1.2939904788659038 1.3346191863669528 0.739314243814635 1.3822033532723244 1.293044287290606 1.5617242226479446
          1.3677745038550055 1.2330435697929851 1.2066714434425923 0.8906089852494554 0.8383556339676795 1.7624163257772512
          1.2689407577376715 1.2639228731377576 0.9761629266340641 1.0340580928950425 1.2026049453760284 1.2855321315504442
          1.3682079105115288 1.2373984938429061 1.1621253917663295 1.168871325117311 1.1281170246848908 1.2008792158863617
          1.3475003342505814 1.1886319444882447 0.7870677250802346 1.1819834144608117 1.1453017557016527 0.6747625865478001
          1.9267594965351065 1.9214279526767721 1.8615030663627279 1.8376650961277485 1.8500762345689734 1.8986514589230856
          1.9788831962245763 0.5929800682241841 0.966297497610245 0.9642114073503298 1.1280102426315728 1.214722612414934
          1.2257234481863069 1.2157649781458915 1.2382241180244966 0.9568140682766885 1.5467971721386309 1.417376508020615
          1.3403544057692742 1.3163922303355768 1.3456874792587972 1.3545332447514582 0.6771481392026755 1.279724602712994
          1.4685214157749713 1.1532293834392395 1.4957529976335269 1.4329570035627615 1.0780392181658418 1.0496864651528006
          1.1294800512269658 1.1521354225934715 1.2741322239536244 1.078903863172517 1.0114358390751714 0.816867413238252
          0.9985904061247223 0.9585931531006618 0.8527912764203985 1.1469180962806456 1.271988524115329 1.131762346528149
          1.677696232751303 0.8126797639235206 0.993207066599775 0.9521253722514792 1.495113108124562 1.388246128135714
          1.2028303699359755 1.207923872673624 1.2648204509542083 1.1307811846717644 1.3433900415440816 1.2857508227686179
          1.0116596035523582 0.9899467544549609 1.2448198482597834 1.2441454169247894 1.2521806255073187 1.3519997770171595
          1.4205987049427782 1.2544457190926845 1.0088910532144377 0.8570557700788886 0.8805198601019117 1.2073022443900259
          1.4257990632282593 1.0257610766499803 1.0423426007208376 1.5808976181139611 1.3568782586732782 1.7430864135140165
          1.69765436035189 0.9477237160365306 1.0826286239278708 1.1163579164948882 1.2386345352388746 1.0643890590208713
          1.1478955972437017 1.1530308600898838 0.9352221459879146 1.1632164820905597 1.205147662769967 1.326604177766959
          1.329967007940165 1.10258514223179 0.9898908132122427 0.9767209513503912 0.9840875701334564 1.3427864593469678
          0.9158676754786275 1.5689223447814171 1.5499738882985001 0.894403546212611 0.9548367496276722 1.426649415456298
          0.9401885854816173 1.103532517694415 1.135654915374943 1.231619382760522 1.0197893776107212 1.2226097681312245
          0.9514127424716309 1.4106537335755485 1.4606830722662114 1.0030888335010704 1.1213074357088249 0.7212947538533879
          1.1739400092314676 0.8680279550192109 0.769451600351827 0.8901750057693057 1.2148038939010894 1.3431808801859675
          1.3596626422277251 1.2125791984819556 1.2027154575071395 1.3213252097542347 1.3352181550414899 1.2585108484531429
          1.1314997022666207 1.0712302350342504 0.8789638917331435 1.0368716176178756 1.2981841967877144 1.6115371420071556
          1.4697450707406907 1.224869455083768 0.9444718674795656 1.0610375987935292 1.017702734633383 1.2875429318770468
          0.9265377415101056 1.5662504006032858 0.9044135082340765 1.6292303271649318 0.8771717013272596 0.6850282710133874
          0.7950321240974604 1.2938074654664846 1.4271471012154642 1.6702845634409047 1.2110351517558662 1.4789080100093839
          1.1185660053704163 0.9253858431332831 1.3228048232207703 1.3294919665239928 1.1552714888638937 1.5528148383520595
          1.4113030748862416 1.36246792771755 1.2045169258943065 1.0395491620214463 0.6101412936337627 1.4116424583520497
          1.2739138156682792 1.0876571593569166 1.1333380978291285 1.3209813103303834 0.9102334072458589 0.9925768343962733
          1.0566568852091052 1.204511557775489 1.3308496651363089 1.2809998332643846 0.8962496611024832 0.6497394737286281
          0.5440527858177152 0.5759301464735831 0.7469036111204995 1.2391159141276296 1.2077239302471297 1.3200355137976962
          1.5305196787417148 1.3008719659225816 0.7169646660122532 1.1163954994709573 0.8552678000768108 0.6017529739775469
          0.5016072615196774 0.5498849892588653 0.6901275204709283 1.606886576650689 1.5062342624742553 1.332940540149941
          1.3316582261875307 0.6198154147035602 1.2384099272110283 1.28184579615376 0.69162363053997 1.1353378092350372
          1.2332336598301126 1.4866234330668766 1.589584504683364 0.9643913028290481 0.7533809473333106 0.7686725730005061
          1.6464924714834204 1.673686154684433 0.9581675426439614 1.1630716994513126 1.272255460294087 1.421034022961294
          1.3450725356785544 0.972831035186438 1.1620010160501404 1.5089079758185056 1.2697123360606737 1.049858728217069
          1.3427167276268077 1.430900294043822 0.9119111901293576 0.9330579247073303 0.8021587070895945 1.27686211621334
          1.5101612373615272 1.6321427370514363 1.4509769762112812 1.2861480461601569 0.6265411103218652 1.3521469481059742
          0.9469720429866998 1.2366232286445005 0.98125445214831 1.0828428976898228 0.9772651169393374 1.6275901023466834